    1    1    1    1
  0.1482975E+02  0.2757716E-09  0.2757716E-09  0.2757716E-09  0.5000000E-15
  1.000000000000000E-004
  CAR 
 fcc Si                                  
      4     40      6
 
  0.5000000E+00  0.5000000E+00  0.5000000E+00  0.2500000E-01
    1        2.313251   1.000000
    2        3.056405   1.000000
    3       18.191018   0.000000
    4       18.191018   0.000000
    5       20.733917   0.000000
    6       20.733917   0.000000
 
  0.4444444E+00  0.4444444E+00  0.4444444E+00  0.2500000E-01
    1        1.179262   1.000000
    2        4.348942   1.000000
    3       18.181192   0.000000
    4       18.181192   0.000000
    5       20.892637   0.000000
    6       20.892637   0.000000
 
  0.3888889E+00  0.3888889E+00  0.3888889E+00  0.2500000E-01
    1       -0.096641   1.000000
    2        6.101282   1.000000
    3       18.180087   0.000000
    4       18.180087   0.000000
    5       21.337584   0.000000
    6       21.337584   0.000000
 
  0.3333333E+00  0.3333333E+00  0.3333333E+00  0.2500000E-01
    1       -1.221404   1.000000
    2        8.015131   1.000000
    3       18.239717   0.000000
    4       18.239717   0.000000
    5       22.002660   0.000000
    6       22.002660   0.000000
 
  0.2777778E+00  0.2777778E+00  0.2777778E+00  0.2500000E-01
    1       -2.180550   1.000000
    2       10.069446   1.000000
    3       18.394504   0.000000
    4       18.394504   0.000000
    5       22.755614   0.000000
    6       22.808619   0.000000
 
  0.2222222E+00  0.2222222E+00  0.2222222E+00  0.2500000E-01
    1       -2.968668   1.000000
    2       12.251515   1.000000
    3       18.674426   0.000000
    4       18.674426   0.000000
    5       22.827142   0.000000
    6       23.600339   0.000000
 
  0.1666667E+00  0.1666667E+00  0.1666667E+00  0.2500000E-01
    1       -3.584055   1.000000
    2       14.537013   0.000000
    3       19.084526   0.000000
    4       19.084526   0.000000
    5       22.920122   0.000000
    6       23.887284   0.000000
 
  0.1111111E+00  0.1111111E+00  0.1111111E+00  0.2500000E-01
    1       -4.024880   1.000000
    2       16.880011   0.000000
    3       19.622039   0.000000
    4       19.622039   0.000000
    5       22.925724   0.000000
    6       23.255882   0.000000
 
  0.5555556E-01  0.5555556E-01  0.5555556E-01  0.2500000E-01
    1       -4.289889   1.000000
    2       19.148801   0.000000
    3       20.253913   0.000000
    4       20.253913   0.000000
    5       22.356948   0.000000
    6       22.356949   0.000000
 
  0.0000000E+00  0.0000000E+00  0.0000000E+00  0.2500000E-01
    1       -4.378569   1.000000
    2       20.698049   0.000000
    3       20.698226   0.000000
    4       20.698226   0.000000
    5       21.769317   0.000000
    6       21.769431   0.000000
 
  0.0000000E+00  0.0000000E+00  0.0000000E+00  0.2500000E-01
    1       -4.378569   1.000000
    2       20.698049   0.000000
    3       20.698226   0.000000
    4       20.698228   0.000000
    5       21.769317   0.000000
    6       21.769431   0.000000
 
  0.0000000E+00  0.5555556E-01  0.5555556E-01  0.2500000E-01
    1       -4.260332   1.000000
    2       19.473688   0.000000
    3       19.473803   0.000000
    4       20.415899   0.000000
    5       21.130417   0.000000
    6       23.190627   0.000000
 
  0.0000000E+00  0.1111111E+00  0.1111111E+00  0.2500000E-01
    1       -3.907072   1.000000
    2       17.997937   0.000000
    3       17.998038   0.000000
    4       19.645811   0.000000
    5       19.805266   0.000000
    6       24.722897   0.000000
 
  0.0000000E+00  0.1666667E+00  0.1666667E+00  0.2500000E-01
    1       -3.319665   1.000000
    2       16.681544   0.000000
    3       16.681637   0.000000
    4       18.445893   0.000000
    5       18.468079   0.000000
    6       21.966293   0.000000
 
  0.0000000E+00  0.2222222E+00  0.2222222E+00  0.2500000E-01
    1       -2.499988   1.000000
    2       15.556212   0.000000
    3       15.556299   0.000000
    4       16.728708   0.000000
    5       17.228388   0.000000
    6       19.819565   0.000000
 
  0.0000000E+00  0.2777778E+00  0.2777778E+00  0.2500000E-01
    1       -1.450094   1.000000
    2       14.401884   0.000000
    3       14.626859   0.000000
    4       14.626963   0.000000
    5       16.186736   0.000000
    6       18.465702   0.000000
 
  0.0000000E+00  0.3333333E+00  0.3333333E+00  0.2500000E-01
    1       -0.175253   1.000000
    2       11.887377   1.000000
    3       13.903807   0.000000
    4       13.903907   0.000000
    5       15.380883   0.000000
    6       17.587302   0.000000
 
  0.0000000E+00  0.3888889E+00  0.3888889E+00  0.2500000E-01
    1        1.320685   1.000000
    2        9.436610   1.000000
    3       13.386834   0.000000
    4       13.386931   0.000000
    5       14.803085   0.000000
    6       17.008489   0.000000
 
  0.0000000E+00  0.4444444E+00  0.4444444E+00  0.2500000E-01
    1        3.021652   1.000000
    2        7.143878   1.000000
    3       13.075405   0.000005
    4       13.075501   0.000005
    5       14.453521   0.000000
    6       16.666028   0.000000
 
  0.0000000E+00  0.5000000E+00  0.5000000E+00  0.2500000E-01
    1        4.613333   1.000000
    2        5.353857   1.000000
    3       12.971492   0.001611
    4       12.971588   0.001604
    5       14.336787   0.000000
    6       16.556337   0.000000
 
  0.0000000E+00  0.5000000E+00  0.5000000E+00  0.2500000E-01
    1        4.613333   1.000000
    2        5.353857   1.000000
    3       12.971492   0.001611
    4       12.971588   0.001604
    5       14.336787   0.000000
    6       16.556337   0.000000
 
  0.2777778E-01  0.5138889E+00  0.5138889E+00  0.2500000E-01
    1        4.627238   1.000000
    2        5.367490   1.000000
    3       12.583278   0.994528
    4       12.984463   0.000877
    5       14.616599   0.000000
    6       16.701701   0.000000
 
  0.5555556E-01  0.5277778E+00  0.5277778E+00  0.2500000E-01
    1        4.668954   1.000000
    2        5.408252   1.000000
    3       11.841500   1.000000
    4       13.023082   0.000119
    5       15.020664   0.000000
    6       17.150214   0.000000
 
  0.8333333E-01  0.5416667E+00  0.5416667E+00  0.2500000E-01
    1        4.738480   1.000000
    2        5.475698   1.000000
    3       11.022120   1.000000
    4       13.087426   0.000002
    5       15.311913   0.000000
    6       17.862870   0.000000
 
  0.1111111E+00  0.5555556E+00  0.5555556E+00  0.2500000E-01
    1        4.835816   1.000000
    2        5.568808   1.000000
    3       10.188857   1.000000
    4       13.177411   0.000000
    5       15.526367   0.000000
    6       18.739914   0.000000
 
  0.1388889E+00  0.5694444E+00  0.5694444E+00  0.2500000E-01
    1        4.960955   1.000000
    2        5.685659   1.000000
    3        9.364075   1.000000
    4       13.293041   0.000000
    5       15.716399   0.000000
    6       19.707226   0.000000
 
  0.1666667E+00  0.5833333E+00  0.5833333E+00  0.2500000E-01
    1        5.113885   1.000000
    2        5.821142   1.000000
    3        8.559946   1.000000
    4       13.434005   0.000000
    5       15.908932   0.000000
    6       20.724090   0.000000
 
  0.1944444E+00  0.5972222E+00  0.5972222E+00  0.2500000E-01
    1        5.294882   1.000000
    2        5.960725   1.000000
    3        7.799451   1.000000
    4       13.600543   0.000000
    5       16.119211   0.000000
    6       21.787400   0.000000
 
  0.2222222E+00  0.6111111E+00  0.6111111E+00  0.2500000E-01
    1        5.503421   1.000000
    2        6.040865   1.000000
    3        7.146016   1.000000
    4       13.792395   0.000000
    5       16.346411   0.000000
    6       22.860143   0.000000
 
  0.2500000E+00  0.6250000E+00  0.6250000E+00  0.2500000E-01
    1        5.739654   1.000000
    2        5.814366   1.000000
    3        6.847867   1.000000
    4       14.009156   0.000000
    5       16.588835   0.000000
    6       23.941362   0.000000
 
  0.3750000E+00  0.7500000E+00  0.3750000E+00  0.2500000E-01
    1        5.739654   1.000000
    2        5.814366   1.000000
    3        6.847867   1.000000
    4       14.009156   0.000000
    5       16.588835   0.000000
    6       23.941362   0.000000
 
  0.3333333E+00  0.6666667E+00  0.3333333E+00  0.2500000E-01
    1        3.904665   1.000000
    2        6.614982   1.000000
    3        7.493809   1.000000
    4       14.809040   0.000000
    5       17.488886   0.000000
    6       28.652524   0.000000
 
  0.2916667E+00  0.5833333E+00  0.2916667E+00  0.2500000E-01
    1        2.011641   1.000000
    2        7.738591   1.000000
    3        8.589081   1.000000
    4       15.822409   0.000000
    5       18.611507   0.000000
    6       27.125280   0.000000
 
  0.2500000E+00  0.5000000E+00  0.2500000E+00  0.2500000E-01
    1        0.339969   1.000000
    2        9.106504   1.000000
    3        9.928482   1.000000
    4       17.026007   0.000000
    5       19.942932   0.000000
    6       25.824827   0.000000
 
  0.2083333E+00  0.4166667E+00  0.2083333E+00  0.2500000E-01
    1       -1.089056   1.000000
    2       10.716104   1.000000
    3       11.482660   1.000000
    4       18.360043   0.000000
    5       21.454667   0.000000
    6       24.811436   0.000000
 
  0.1666667E+00  0.3333333E+00  0.1666667E+00  0.2500000E-01
    1       -2.267361   1.000000
    2       12.559311   0.998033
    3       13.227100   0.000000
    4       19.672433   0.000000
    5       23.091903   0.000000
    6       23.838815   0.000000
 
  0.1250000E+00  0.2500000E+00  0.1250000E+00  0.2500000E-01
    1       -3.188071   1.000000
    2       14.616609   0.000000
    3       15.127133   0.000000
    4       20.546863   0.000000
    5       22.947079   0.000000
    6       24.007106   0.000000
 
  0.8333333E-01  0.1666667E+00  0.8333333E-01  0.2500000E-01
    1       -3.848359   1.000000
    2       16.853090   0.000000
    3       17.138182   0.000000
    4       20.776273   0.000000
    5       22.308599   0.000000
    6       23.332586   0.000000
 
  0.4166667E-01  0.8333333E-01  0.4166667E-01  0.2500000E-01
    1       -4.245654   1.000000
    2       19.115759   0.000000
    3       19.165433   0.000000
    4       20.734814   0.000000
    5       21.923848   0.000000
    6       22.632834   0.000000
 
  0.0000000E+00  0.0000000E+00  0.0000000E+00  0.2500000E-01
    1       -4.378569   1.000000
    2       20.698049   0.000000
    3       20.698226   0.000000
    4       20.698226   0.000000
    5       21.769317   0.000000
    6       21.769431   0.000000
